ESCALE ; pCOHP file generated by LOBSTER. Energy is shifted such that the Fermi level lies at 0 eV.
        18          1        801  -1.43671e+01   2.56830e+01   7.66045e+00 
Average
No.1:Al1->Al2(2.7302000522499998)
No.1:Al1[3s]->Al2[3s](2.7302000522499998)
No.1:Al1[3s]->Al2[3p_y](2.7302000522499998)
No.1:Al1[3s]->Al2[3p_z](2.7302000522499998)
No.1:Al1[3s]->Al2[3p_x](2.7302000522499998)
No.1:Al1[3p_y]->Al2[3s](2.7302000522499998)
No.1:Al1[3p_y]->Al2[3p_y](2.7302000522499998)
No.1:Al1[3p_y]->Al2[3p_z](2.7302000522499998)
No.1:Al1[3p_y]->Al2[3p_x](2.7302000522499998)
No.1:Al1[3p_z]->Al2[3s](2.7302000522499998)
No.1:Al1[3p_z]->Al2[3p_y](2.7302000522499998)
No.1:Al1[3p_z]->Al2[3p_z](2.7302000522499998)
No.1:Al1[3p_z]->Al2[3p_x](2.7302000522499998)
No.1:Al1[3p_x]->Al2[3s](2.7302000522499998)
No.1:Al1[3p_x]->Al2[3p_y](2.7302000522499998)
No.1:Al1[3p_x]->Al2[3p_z](2.7302000522499998)
No.1:Al1[3p_x]->Al2[3p_x](2.7302000522499998)
-22.02753   0.00000  -0.00433   0.00000  -0.03679   0.00000  -0.00087   0.00000  -0.00026   0.00000   0.00000   0.00000  -0.00679   0.00000  -0.00026   0.00000  -0.00820   0.00000  -0.00000   0.00000  -0.00058   0.00000   0.00000   0.00000  -0.00000   0.00000  -0.00430   0.00000   0.00000   0.00000  -0.00682   0.00000  -0.00054   0.00000   0.00000   0.00000  -0.00818
-21.97747  -0.00336  -0.00450  -0.02858  -0.03822  -0.00102  -0.00092  -0.00059  -0.00029   0.00000   0.00000  -0.00518  -0.00705  -0.00059  -0.00029  -0.00795  -0.00860  -0.00000  -0.00000  -0.00089  -0.00063   0.00000   0.00000  -0.00000  -0.00000  -0.00079  -0.00434   0.00000   0.00000  -0.00519  -0.00708  -0.00083  -0.00058   0.00000   0.00000  -0.00555  -0.00845
-21.92741  -0.00405  -0.00470  -0.03443  -0.03994  -0.00118  -0.00098  -0.00066  -0.00032   0.00000   0.00000  -0.00652  -0.00738  -0.00066  -0.00032  -0.00864  -0.00903  -0.00000  -0.00000  -0.00103  -0.00068   0.00000   0.00000  -0.00000  -0.00000  -0.00141  -0.00441   0.00000   0.00000  -0.00654  -0.00740  -0.00096  -0.00063   0.00000   0.00000  -0.00683  -0.00880
-21.87735  -0.00461  -0.00493  -0.03916  -0.04190  -0.00127  -0.00104  -0.00068  -0.00035   0.00000   0.00000  -0.00783  -0.00777  -0.00067  -0.00035  -0.00847  -0.00945  -0.00000  -0.00000  -0.00111  -0.00073   0.00000   0.00000  -0.00000  -0.00000  -0.00225  -0.00452   0.00000   0.00000  -0.00785  -0.00780  -0.00103  -0.00068   0.00000   0.00000  -0.00800  -0.00920
-21.82728  -0.00501  -0.00518  -0.04260  -0.04403  -0.00130  -0.00111  -0.00065  -0.00039   0.00000   0.00000  -0.00901  -0.00822  -0.00065  -0.00038  -0.00760  -0.00983  -0.00000  -0.00000  -0.00113  -0.00079   0.00000   0.00000  -0.00000  -0.00000  -0.00320  -0.00468   0.00000   0.00000  -0.00902  -0.00825  -0.00105  -0.00074   0.00000   0.00000  -0.00898  -0.00965
-21.77722  -0.00522  -0.00544  -0.04438  -0.04626  -0.00127  -0.00117  -0.00060  -0.00042   0.00000   0.00000  -0.00986  -0.00872  -0.00059  -0.00041  -0.00634  -0.01015  -0.00000  -0.00000  -0.00110  -0.00084   0.00000   0.00000  -0.00000  -0.00000  -0.00407  -0.00488   0.00000   0.00000  -0.00987  -0.00874  -0.00103  -0.00079   0.00000   0.00000  -0.00965  -0.01013
-21.72716  -0.00516  -0.00570  -0.04383  -0.04845  -0.00118  -0.00123  -0.00053  -0.00044   0.00000   0.00000  -0.01010  -0.00922  -0.00053  -0.00044  -0.00502  -0.01040  -0.00000  -0.00000  -0.00104  -0.00090   0.00000   0.00000  -0.00000  -0.00000  -0.00460  -0.00511   0.00000   0.00000  -0.01010  -0.00925  -0.00096  -0.00084   0.00000   0.00000  -0.00977  -0.01062
-21.67710  -0.00475  -0.00594  -0.04035  -0.05047  -0.00103  -0.00128  -0.00045  -0.00047  -0.00000   0.00000  -0.00952  -0.00970  -0.00045  -0.00046  -0.00380  -0.01059  -0.00000  -0.00000  -0.00092  -0.00094  -0.00000   0.00000  -0.00000  -0.00000  -0.00464  -0.00535   0.00000   0.00000  -0.00952  -0.00972  -0.00086  -0.00088   0.00000   0.00000  -0.00916  -0.01108
-21.62703  -0.00401  -0.00614  -0.03405  -0.05217  -0.00083  -0.00132  -0.00036  -0.00048  -0.00000   0.00000  -0.00815  -0.01011  -0.00036  -0.00048  -0.00277  -0.01073  -0.00000  -0.00000  -0.00076  -0.00098  -0.00000   0.00000  -0.00000  -0.00000  -0.00415  -0.00555   0.00000   0.00000  -0.00814  -0.01013  -0.00070  -0.00091  -0.00000   0.00000  -0.00783  -0.01147
-21.57697  -0.00306  -0.00629  -0.02599  -0.05348  -0.00061  -0.00135  -0.00027  -0.00050  -0.00000   0.00000  -0.00626  -0.01042  -0.00027  -0.00049  -0.00191  -0.01083  -0.00000  -0.00000  -0.00057  -0.00101  -0.00000   0.00000  -0.00000  -0.00000  -0.00329  -0.00572   0.00000   0.00000  -0.00625  -0.01044  -0.00053  -0.00094  -0.00000   0.00000  -0.00603  -0.01177
-21.52691  -0.00209  -0.00640  -0.01778  -0.05437  -0.00040  -0.00137  -0.00018  -0.00051  -0.00000   0.00000  -0.00429  -0.01064  -0.00018  -0.00050  -0.00123  -0.01089  -0.00000  -0.00000  -0.00039  -0.00103  -0.00000   0.00000  -0.00000  -0.00000  -0.00232  -0.00583   0.00000   0.00000  -0.00428  -0.01066  -0.00036  -0.00096  -0.00000   0.00000  -0.00415  -0.01198
-21.47685  -0.00128  -0.00646  -0.01084  -0.05491  -0.00024  -0.00139  -0.00011  -0.00051  -0.00000   0.00000  -0.00261  -0.01077  -0.00011  -0.00051  -0.00072  -0.01092  -0.00000  -0.00000  -0.00023  -0.00104  -0.00000   0.00000  -0.00000  -0.00000  -0.00144  -0.00591   0.00000   0.00000  -0.00261  -0.01079  -0.00022  -0.00097  -0.00000   0.00000  -0.00254  -0.01211
-21.42678  -0.00069  -0.00649  -0.00587  -0.05520  -0.00013  -0.00139  -0.00006  -0.00052  -0.00000   0.00000  -0.00141  -0.01084  -0.00006  -0.00051  -0.00038  -0.01094  -0.00000  -0.00000  -0.00013  -0.00105  -0.00000   0.00000  -0.00000  -0.00000  -0.00080  -0.00595   0.00000   0.00000  -0.00141  -0.01086  -0.00012  -0.00098  -0.00000   0.00000  -0.00138  -0.01218
-21.37672  -0.00033  -0.00651  -0.00281  -0.05534  -0.00006  -0.00140  -0.00003  -0.00052  -0.00000   0.00000  -0.00067  -0.01087  -0.00003  -0.00051  -0.00018  -0.01095  -0.00000  -0.00000  -0.00006  -0.00105  -0.00000   0.00000  -0.00000  -0.00000  -0.00039  -0.00597   0.00000   0.00000  -0.00067  -0.01089  -0.00006  -0.00098  -0.00000   0.00000  -0.00066  -0.01221
-21.32666  -0.00014  -0.00652  -0.00119  -0.05540  -0.00002  -0.00140  -0.00001  -0.00052  -0.00000   0.00000  -0.00028  -0.01088  -0.00001  -0.00051  -0.00008  -0.01096  -0.00000  -0.00000  -0.00003  -0.00105  -0.00000   0.00000  -0.00000  -0.00000  -0.00017  -0.00597   0.00000   0.00000  -0.00028  -0.01091  -0.00002  -0.00098  -0.00000   0.00000  -0.00028  -0.01222
-21.27660  -0.00005  -0.00652  -0.00045  -0.05543  -0.00001  -0.00140  -0.00000  -0.00052  -0.00000   0.00000  -0.00011  -0.01089  -0.00000  -0.00051  -0.00003  -0.01096  -0.00000  -0.00000  -0.00001  -0.00105  -0.00000   0.00000  -0.00000  -0.00000  -0.00006  -0.00598   0.00000   0.00000  -0.00011  -0.01091  -0.00001  -0.00098  -0.00000   0.00000  -0.00011  -0.01223
-21.22653  -0.00002  -0.00652  -0.00015  -0.05543  -0.00000  -0.00140  -0.00000  -0.00052  -0.00000   0.00000  -0.00004  -0.01089  -0.00000  -0.00051  -0.00001  -0.01096  -0.00000  -0.00000  -0.00000  -0.00105  -0.00000   0.00000  -0.00000  -0.00000  -0.00002  -0.00598   0.00000   0.00000  -0.00003  -0.01091  -0.00000  -0.00098  -0.00000   0.00000  -0.00004  -0.01223
-21.17647  -0.00001  -0.00652  -0.00004  -0.05544  -0.00000  -0.00140  -0.00000  -0.00052  -0.00000   0.00000  -0.00001  -0.01089  -0.00000  -0.00051  -0.00000  -0.01096  -0.00000  -0.00000  -0.00000  -0.00105  -0.00000   0.00000  -0.00000  -0.00000  -0.00001  -0.00598   0.00000   0.00000  -0.00001  -0.01092  -0.00000  -0.00098  -0.00000   0.00000  -0.00001  -0.01223
-21.12641  -0.00000  -0.00652  -0.00001  -0.05544  -0.00000  -0.00140  -0.00000  -0.00052  -0.00000   0.00000  -0.00000  -0.01089  -0.00000  -0.00051  -0.00000  -0.01096  -0.00000  -0.00000  -0.00000  -0.00105  -0.00000   0.00000  -0.00000  -0.00000  -0.00000  -0.00598   0.00000   0.00000  -0.00000  -0.01092  -0.00000  -0.00098  -0.00000   0.00000  -0.00000  -0.01223
-21.07635  -0.00000  -0.00652  -0.00000  -0.05544  -0.00000  -0.00140  -0.00000  -0.00052  -0.00000   0.00000  -0.00000  -0.01089  -0.00000  -0.00051  -0.00000  -0.01096  -0.00000  -0.00000  -0.00000  -0.00105  -0.00000   0.00000  -0.00000  -0.00000  -0.00000  -0.00598   0.00000   0.00000  -0.00000  -0.01092  -0.00000  -0.00098  -0.00000   0.00000  -0.00000  -0.01223
-21.02628  -0.00000  -0.00652  -0.00000  -0.05544  -0.00000  -0.00140  -0.00000  -0.00052  -0.00000   0.00000  -0.00000  -0.01089  -0.00000  -0.00051  -0.00000  -0.01096  -0.00000  -0.00000  -0.00000  -0.00105  -0.00000   0.00000  -0.00000  -0.00000  -0.00000  -0.00598   0.00000   0.00000  -0.00000  -0.01092  -0.00000  -0.00098  -0.00000   0.00000  -0.00000  -0.01223
-20.97622  -0.00000  -0.00652  -0.00000  -0.05544  -0.00000  -0.00140  -0.00000  -0.00052  -0.00000   0.00000  -0.00000  -0.01089  -0.00000  -0.00051  -0.00000  -0.01096  -0.00000  -0.00000  -0.00000  -0.00105  -0.00000   0.00000  -0.00000  -0.00000  -0.00000  -0.00598   0.00000   0.00000  -0.00000  -0.01092  -0.00000  -0.00098  -0.00000   0.00000  -0.00000  -0.01223
-20.92616  -0.00000  -0.00652  -0.00000  -0.05544  -0.00000  -0.00140  -0.00000  -0.00052  -0.00000   0.00000  -0.00000  -0.01089  -0.00000  -0.00051  -0.00000  -0.01096  -0.00000  -0.00000  -0.00000  -0.00105  -0.00000   0.00000  -0.00000  -0.00000  -0.00000  -0.00598   0.00000   0.00000  -0.00000  -0.01092  -0.00000  -0.00098  -0.00000   0.00000  -0.00000  -0.01223
-20.87610  -0.00000  -0.00652  -0.00000  -0.05544  -0.00000  -0.00140  -0.00000  -0.00052  -0.00000   0.00000  -0.00000  -0.01089  -0.00000  -0.00051  -0.00000  -0.01096  -0.00000  -0.00000  -0.00000  -0.00105  -0.00000   0.00000  -0.00000  -0.00000  -0.00000  -0.00598   0.00000   0.00000  -0.00000  -0.01092  -0.00000  -0.00098  -0.00000   0.00000  -0.00000  -0.01223
-20.82603  -0.00000  -0.00652  -0.00000  -0.05544  -0.00000  -0.00140  -0.00000  -0.00052  -0.00000   0.00000  -0.00000  -0.01089  -0.00000  -0.00051  -0.00000  -0.01096  -0.00000  -0.00000  -0.00000  -0.00105  -0.00000   0.00000  -0.00000  -0.00000  -0.00000  -0.00598   0.00000   0.00000  -0.00000  -0.01092  -0.00000  -0.00098  -0.00000   0.00000  -0.00000  -0.01223
-20.77597  -0.00000  -0.00652  -0.00000  -0.05544  -0.00000  -0.00140  -0.00000  -0.00052  -0.00000   0.00000  -0.00000  -0.01089  -0.00000  -0.00051  -0.00000  -0.01096  -0.00000  -0.00000  -0.00000  -0.00105  -0.00000   0.00000  -0.00000  -0.00000  -0.00000  -0.00598   0.00000   0.00000  -0.00000  -0.01092  -0.00000  -0.00098  -0.00000   0.00000  -0.00000  -0.01223
-20.72591  -0.00000  -0.00652  -0.00000  -0.05544  -0.00000  -0.00140  -0.00000  -0.00052  -0.00000   0.00000  -0.00000  -0.01089  -0.00000  -0.00051  -0.00000  -0.01096  -0.00000  -0.00000  -0.00000  -0.00105  -0.00000   0.00000  -0.00000  -0.00000  -0.00000  -0.00598   0.00000   0.00000  -0.00000  -0.01092  -0.00000  -0.00098  -0.00000   0.00000  -0.00000  -0.01223
-20.67584  -0.00000  -0.00652  -0.00000  -0.05544  -0.00000  -0.00140  -0.00000  -0.00052  -0.00000   0.00000  -0.00000  -0.01089  -0.00000  -0.00051  -0.00000  -0.01096  -0.00000  -0.00000  -0.00000  -0.00105  -0.00000   0.00000  -0.00000  -0.00000  -0.00000  -0.00598   0.00000   0.00000  -0.00000  -0.01092  -0.00000  -0.00098  -0.00000   0.00000  -0.00000  -0.01223
-20.62578  -0.00000  -0.00652  -0.00000  -0.05544  -0.00000  -0.00140  -0.00000  -0.00052  -0.00000   0.00000  -0.00000  -0.01089  -0.00000  -0.00051  -0.00000  -0.01096  -0.00000  -0.00000  -0.00000  -0.00105  -0.00000   0.00000  -0.00000  -0.00000  -0.00000  -0.00598   0.00000   0.00000  -0.00000  -0.01092  -0.00000  -0.00098  -0.00000   0.00000  -0.00000  -0.01223
-20.57572  -0.00000  -0.00652  -0.00000  -0.05544  -0.00000  -0.00140  -0.00000  -0.00052  -0.00000   0.00000  -0.00000  -0.01089  -0.00000  -0.00051  -0.00000  -0.01096  -0.00000  -0.00000  -0.00000  -0.00105  -0.00000   0.00000  -0.00000  -0.00000  -0.00000  -0.00598   0.00000   0.00000  -0.00000  -0.01092  -0.00000  -0.00098   0.00000   0.00000  -0.00000  -0.01223
-20.52566  -0.00000  -0.00652  -0.00000  -0.05544   0.00000  -0.00140   0.00000  -0.00052   0.00000   0.00000   0.00000  -0.01089   0.00000  -0.00051  -0.00000  -0.01096   0.00000  -0.00000  -0.00000  -0.00105  -0.00000   0.00000  -0.00000  -0.00000   0.00000  -0.00598   0.00000   0.00000   0.00000  -0.01092  -0.00000  -0.00098  -0.00000   0.00000  -0.00000  -0.01223
-20.47559   0.00000  -0.00652   0.00000  -0.05544   0.00000  -0.00140   0.00000  -0.00052   0.00000   0.00000   0.00000  -0.01089   0.00000  -0.00051   0.00000  -0.01096   0.00000  -0.00000   0.00000  -0.00105   0.00000   0.00000   0.00000  -0.00000   0.00000  -0.00598   0.00000   0.00000   0.00000  -0.01092   0.00000  -0.00098   0.00000   0.00000   0.00000  -0.01223
-20.42553   0.00000  -0.00652   0.00000  -0.05544   0.00000  -0.00140   0.00000  -0.00052   0.00000   0.00000   0.00000  -0.01089   0.00000  -0.00051   0.00000  -0.01096   0.00000  -0.00000   0.00000  -0.00105   0.00000   0.00000   0.00000  -0.00000   0.00000  -0.00598   0.00000   0.00000   0.00000  -0.01092   0.00000  -0.00098   0.00000   0.00000   0.00000  -0.01223
-20.37547   0.00000  -0.00652   0.00000  -0.05544   0.00000  -0.00140   0.00000  -0.00052   0.00000   0.00000   0.00000  -0.01089   0.00000  -0.00051   0.00000  -0.01096   0.00000  -0.00000   0.00000  -0.00105   0.00000   0.00000   0.00000  -0.00000   0.00000  -0.00598   0.00000   0.00000   0.00000  -0.01092   0.00000  -0.00098   0.00000   0.00000   0.00000  -0.01223
-20.32541   0.00000  -0.00652   0.00000  -0.05544   0.00000  -0.00140   0.00000  -0.00052   0.00000   0.00000   0.00000  -0.01089   0.00000  -0.00051   0.00000  -0.01096   0.00000  -0.00000   0.00000  -0.00105   0.00000   0.00000   0.00000  -0.00000   0.00000  -0.00598   0.00000   0.00000   0.00000  -0.01092   0.00000  -0.00098   0.00000   0.00000   0.00000  -0.01223
-20.27534   0.00000  -0.00652   0.00000  -0.05544   0.00000  -0.00140   0.00000  -0.00052   0.00000   0.00000   0.00000  -0.01089   0.00000  -0.00051   0.00000  -0.01096   0.00000  -0.00000   0.00000  -0.00105   0.00000   0.00000   0.00000  -0.00000   0.00000  -0.00598   0.00000   0.00000   0.00000  -0.01092   0.00000  -0.00098   0.00000   0.00000   0.00000  -0.01223
-20.22528   0.00000  -0.00652   0.00000  -0.05544   0.00000  -0.00140   0.00000  -0.00052   0.00000   0.00000   0.00000  -0.01089   0.00000  -0.00051   0.00000  -0.01096   0.00000  -0.00000   0.00000  -0.00105   0.00000   0.00000   0.00000  -0.00000   0.00000  -0.00598   0.00000   0.00000   0.00000  -0.01092   0.00000  -0.00098   0.00000   0.00000   0.00000  -0.01223
-20.17522   0.00000  -0.00652   0.00000  -0.05544   0.00000  -0.00140   0.00000  -0.00052   0.00000   0.00000   0.00000  -0.01089   0.00000  -0.00051   0.00000  -0.01096   0.00000  -0.00000   0.00000  -0.00105   0.00000   0.00000   0.00000  -0.00000   0.00000  -0.00598   0.00000   0.00000   0.00000  -0.01092   0.00000  -0.00098   0.00000   0.00000   0.00000  -0.01223
-20.12516   0.00000  -0.00652   0.00000  -0.05544   0.00000  -0.00140   0.00000  -0.00052   0.00000   0.00000   0.00000  -0.01089   0.00000  -0.00051   0.00000  -0.01096   0.00000  -0.00000   0.00000  -0.00105   0.00000   0.00000   0.00000  -0.00000   0.00000  -0.00598   0.00000   0.00000   0.00000  -0.01092   0.00000  -0.00098   0.00000   0.00000   0.00000  -0.01223
-20.07509   0.00000  -0.00652   0.00000  -0.05544   0.00000  -0.00140   0.00000  -0.00052   0.00000   0.00000   0.00000  -0.01089   0.00000  -0.00051   0.00000  -0.01096   0.00000  -0.00000   0.00000  -0.00105   0.00000   0.00000   0.00000  -0.00000   0.00000  -0.00598   0.00000   0.00000   0.00000  -0.01092   0.00000  -0.00098   0.00000   0.00000   0.00000  -0.01223
-20.02503   0.00000  -0.00652   0.00000  -0.05544   0.00000  -0.00140   0.00000  -0.00052   0.00000   0.00000   0.00000  -0.01089   0.00000  -0.00051   0.00000  -0.01096   0.00000  -0.00000   0.00000  -0.00105   0.00000   0.00000   0.00000  -0.00000   0.00000  -0.00598   0.00000   0.00000   0.00000  -0.01092   0.00000  -0.00098   0.00000   0.00000   0.00000  -0.01223
-19.97497   0.00000  -0.00652   0.00000  -0.05544   0.00000  -0.00140   0.00000  -0.00052   0.00000   0.00000   0.00000  -0.01089   0.00000  -0.00051   0.00000  -0.01096   0.00000  -0.00000   0.00000  -0.00105   0.00000   0.00000   0.00000  -0.00000   0.00000  -0.00598   0.00000   0.00000   0.00000  -0.01092   0.00000  -0.00098   0.00000   0.00000   0.00000  -0.01223
-19.92491   0.00000  -0.00652   0.00000  -0.05544   0.00000  -0.00140   0.00000  -0.00052   0.00000   0.00000   0.00000  -0.01089   0.00000  -0.00051   0.00000  -0.01096   0.00000  -0.00000   0.00000  -0.00105   0.00000   0.00000   0.00000  -0.00000   0.00000  -0.00598   0.00000   0.00000   0.00000  -0.01092   0.00000  -0.00098   0.00000   0.00000   0.00000  -0.01223
-19.87484   0.00000  -0.00652   0.00000  -0.05544   0.00000  -0.00140   0.00000  -0.00052   0.00000   0.00000   0.00000  -0.01089   0.00000  -0.00051   0.00000  -0.01096   0.00000  -0.00000   0.00000  -0.00105   0.00000   0.00000   0.00000  -0.00000   0.00000  -0.00598   0.00000   0.00000   0.00000  -0.01092   0.00000  -0.00098   0.00000   0.00000   0.00000  -0.01223
-19.82478   0.00000  -0.00652   0.00000  -0.05544   0.00000  -0.00140   0.00000  -0.00052   0.00000   0.00000   0.00000  -0.01089   0.00000  -0.00051   0.00000  -0.01096   0.00000  -0.00000   0.00000  -0.00105   0.00000   0.00000   0.00000  -0.00000   0.00000  -0.00598   0.00000   0.00000   0.00000  -0.01092   0.00000  -0.00098   0.00000   0.00000   0.00000  -0.01223
-19.77472   0.00000  -0.00652   0.00000  -0.05544   0.00000  -0.00140   0.00000  -0.00052   0.00000   0.00000   0.00000  -0.01089   0.00000  -0.00051   0.00000  -0.01096   0.00000  -0.00000   0.00000  -0.00105   0.00000   0.00000   0.00000  -0.00000   0.00000  -0.00598   0.00000   0.00000   0.00000  -0.01092   0.00000  -0.00098   0.00000   0.00000   0.00000  -0.01223
-19.72466   0.00000  -0.00652   0.00000  -0.05544   0.00000  -0.00140   0.00000  -0.00052   0.00000   0.00000   0.00000  -0.01089   0.00000  -0.00051   0.00000  -0.01096   0.00000  -0.00000   0.00000  -0.00105   0.00000   0.00000   0.00000  -0.00000   0.00000  -0.00598   0.00000   0.00000   0.00000  -0.01092   0.00000  -0.00098   0.00000   0.00000   0.00000  -0.01223
-19.67459   0.00000  -0.00652   0.00000  -0.05544   0.00000  -0.00140   0.00000  -0.00052   0.00000   0.00000   0.00000  -0.01089   0.00000  -0.00051   0.00000  -0.01096   0.00000  -0.00000   0.00000  -0.00105   0.00000   0.00000   0.00000  -0.00000   0.00000  -0.00598   0.00000   0.00000   0.00000  -0.01092   0.00000  -0.00098   0.00000   0.00000   0.00000  -0.01223
-19.62453   0.00000  -0.00652   0.00000  -0.05544   0.00000  -0.00140   0.00000  -0.00052   0.00000   0.00000   0.00000  -0.01089   0.00000  -0.00051   0.00000  -0.01096   0.00000  -0.00000   0.00000  -0.00105   0.00000   0.00000   0.00000  -0.00000   0.00000  -0.00598   0.00000   0.00000   0.00000  -0.01092   0.00000  -0.00098   0.00000   0.00000   0.00000  -0.01223
-19.57447   0.00000  -0.00652   0.00000  -0.05544   0.00000  -0.00140   0.00000  -0.00052   0.00000   0.00000   0.00000  -0.01089   0.00000  -0.00051   0.00000  -0.01096   0.00000  -0.00000   0.00000  -0.00105   0.00000   0.00000   0.00000  -0.00000   0.00000  -0.00598   0.00000   0.00000   0.00000  -0.01092   0.00000  -0.00098   0.00000   0.00000   0.00000  -0.01223
-19.52441   0.00000  -0.00652   0.00000  -0.05544   0.00000  -0.00140   0.00000  -0.00052   0.00000   0.00000   0.00000  -0.01089   0.00000  -0.00051   0.00000  -0.01096   0.00000  -0.00000   0.00000  -0.00105   0.00000   0.00000   0.00000  -0.00000   0.00000  -0.00598   0.00000   0.00000   0.00000  -0.01092   0.00000  -0.00098   0.00000   0.00000   0.00000  -0.01223
-19.47434   0.00000  -0.00652   0.00000  -0.05544   0.00000  -0.00140   0.00000  -0.00052   0.00000   0.00000   0.00000  -0.01089   0.00000  -0.00051   0.00000  -0.01096   0.00000  -0.00000   0.00000  -0.00105   0.00000   0.00000   0.00000  -0.00000   0.00000  -0.00598   0.00000   0.00000   0.00000  -0.01092   0.00000  -0.00098   0.00000   0.00000   0.00000  -0.01223
-19.42428   0.00000  -0.00652   0.00000  -0.05544   0.00000  -0.00140   0.00000  -0.00052   0.00000   0.00000   0.00000  -0.01089   0.00000  -0.00051   0.00000  -0.01096   0.00000  -0.00000   0.00000  -0.00105   0.00000   0.00000   0.00000  -0.00000   0.00000  -0.00598   0.00000   0.00000   0.00000  -0.01092   0.00000  -0.00098   0.00000   0.00000   0.00000  -0.01223
-19.37422   0.00000  -0.00652   0.00000  -0.05544   0.00000  -0.00140   0.00000  -0.00052   0.00000   0.00000   0.00000  -0.01089   0.00000  -0.00051   0.00000  -0.01096   0.00000  -0.00000   0.00000  -0.00105   0.00000   0.00000   0.00000  -0.00000   0.00000  -0.00598   0.00000   0.00000   0.00000  -0.01092   0.00000  -0.00098   0.00000   0.00000   0.00000  -0.01223
-19.32416   0.00000  -0.00652   0.00000  -0.05544   0.00000  -0.00140   0.00000  -0.00052   0.00000   0.00000   0.00000  -0.01089   0.00000  -0.00051   0.00000  -0.01096   0.00000  -0.00000   0.00000  -0.00105   0.00000   0.00000   0.00000  -0.00000   0.00000  -0.00598   0.00000   0.00000   0.00000  -0.01092   0.00000  -0.00098   0.00000   0.00000   0.00000  -0.01223
-19.27409   0.00000  -0.00652   0.00000  -0.05544   0.00000  -0.00140   0.00000  -0.00052   0.00000   0.00000   0.00000  -0.01089   0.00000  -0.00051   0.00000  -0.01096   0.00000  -0.00000   0.00000  -0.00105   0.00000   0.00000   0.00000  -0.00000   0.00000  -0.00598   0.00000   0.00000   0.00000  -0.01092   0.00000  -0.00098   0.00000   0.00000   0.00000  -0.01223
-19.22403   0.00000  -0.00652   0.00000  -0.05544   0.00000  -0.00140   0.00000  -0.00052   0.00000   0.00000   0.00000  -0.01089   0.00000  -0.00051   0.00000  -0.01096   0.00000  -0.00000   0.00000  -0.00105   0.00000   0.00000   0.00000  -0.00000   0.00000  -0.00598   0.00000   0.00000   0.00000  -0.01092   0.00000  -0.00098   0.00000   0.00000   0.00000  -0.01223
-19.17397   0.00000  -0.00652   0.00000  -0.05544   0.00000  -0.00140   0.00000  -0.00052   0.00000   0.00000   0.00000  -0.01089   0.00000  -0.00051   0.00000  -0.01096   0.00000  -0.00000   0.00000  -0.00105   0.00000   0.00000   0.00000  -0.00000   0.00000  -0.00598   0.00000   0.00000   0.00000  -0.01092   0.00000  -0.00098   0.00000   0.00000   0.00000  -0.01223
-19.12390   0.00000  -0.00652   0.00000  -0.05544   0.00000  -0.00140   0.00000  -0.00052   0.00000   0.00000   0.00000  -0.01089   0.00000  -0.00051   0.00000  -0.01096   0.00000  -0.00000   0.00000  -0.00105   0.00000   0.00000   0.00000  -0.00000   0.00000  -0.00598   0.00000   0.00000   0.00000  -0.01092   0.00000  -0.00098   0.00000   0.00000   0.00000  -0.01223
-19.07384   0.00000  -0.00652   0.00000  -0.05544   0.00000  -0.00140   0.00000  -0.00052   0.00000   0.00000   0.00000  -0.01089   0.00000  -0.00051   0.00000  -0.01096   0.00000  -0.00000   0.00000  -0.00105   0.00000   0.00000   0.00000  -0.00000   0.00000  -0.00598   0.00000   0.00000   0.00000  -0.01092   0.00000  -0.00098   0.00000   0.00000   0.00000  -0.01223
-19.02378   0.00000  -0.00652   0.00000  -0.05544   0.00000  -0.00140   0.00000  -0.00052   0.00000   0.00000   0.00000  -0.01089   0.00000  -0.00051   0.00000  -0.01096   0.00000  -0.00000   0.00000  -0.00105   0.00000   0.00000   0.00000  -0.00000   0.00000  -0.00598   0.00000   0.00000   0.00000  -0.01092   0.00000  -0.00098   0.00000   0.00000   0.00000  -0.01223
-18.97372   0.00000  -0.00652   0.00000  -0.05544   0.00000  -0.00140   0.00000  -0.00052   0.00000   0.00000   0.00000  -0.01089   0.00000  -0.00051   0.00000  -0.01096   0.00000  -0.00000   0.00000  -0.00105   0.00000   0.00000   0.00000  -0.00000   0.00000  -0.00598   0.00000   0.00000   0.00000  -0.01092   0.00000  -0.00098   0.00000   0.00000   0.00000  -0.01223
-18.92365   0.00000  -0.00652   0.00000  -0.05544   0.00000  -0.00140   0.00000  -0.00052   0.00000   0.00000   0.00000  -0.01089   0.00000  -0.00051   0.00000  -0.01096   0.00000  -0.00000   0.00000  -0.00105   0.00000   0.00000   0.00000  -0.00000   0.00000  -0.00598   0.00000   0.00000   0.00000  -0.01092   0.00000  -0.00098   0.00000   0.00000   0.00000  -0.01223
-18.87359   0.00000  -0.00652   0.00000  -0.05544   0.00000  -0.00140   0.00000  -0.00052   0.00000   0.00000   0.00000  -0.01089   0.00000  -0.00051   0.00000  -0.01096   0.00000  -0.00000   0.00000  -0.00105   0.00000   0.00000   0.00000  -0.00000   0.00000  -0.00598   0.00000   0.00000   0.00000  -0.01092   0.00000  -0.00098   0.00000   0.00000   0.00000  -0.01223
-18.82353   0.00000  -0.00652   0.00000  -0.05544   0.00000  -0.00140   0.00000  -0.00052   0.00000   0.00000   0.00000  -0.01089   0.00000  -0.00051   0.00000  -0.01096   0.00000  -0.00000   0.00000  -0.00105   0.00000   0.00000   0.00000  -0.00000   0.00000  -0.00598   0.00000   0.00000   0.00000  -0.01092   0.00000  -0.00098   0.00000   0.00000   0.00000  -0.01223
-18.77347   0.00000  -0.00652   0.00000  -0.05544   0.00000  -0.00140   0.00000  -0.00052   0.00000   0.00000   0.00000  -0.01089   0.00000  -0.00051   0.00000  -0.01096   0.00000  -0.00000   0.00000  -0.00105   0.00000   0.00000   0.00000  -0.00000   0.00000  -0.00598   0.00000   0.00000   0.00000  -0.01092   0.00000  -0.00098   0.00000   0.00000   0.00000  -0.01223
-18.72340   0.00000  -0.00652   0.00000  -0.05544   0.00000  -0.00140   0.00000  -0.00052   0.00000   0.00000   0.00000  -0.01089   0.00000  -0.00051   0.00000  -0.01096   0.00000  -0.00000   0.00000  -0.00105   0.00000   0.00000   0.00000  -0.00000   0.00000  -0.00598   0.00000   0.00000   0.00000  -0.01092   0.00000  -0.00098   0.00000   0.00000   0.00000  -0.01223
-18.67334   0.00000  -0.00652   0.00000  -0.05544   0.00000  -0.00140   0.00000  -0.00052   0.00000   0.00000   0.00000  -0.01089   0.00000  -0.00051   0.00000  -0.01096   0.00000  -0.00000   0.00000  -0.00105   0.00000   0.00000   0.00000  -0.00000   0.00000  -0.00598   0.00000   0.00000   0.00000  -0.01092   0.00000  -0.00098   0.00000   0.00000   0.00000  -0.01223
-18.62328   0.00000  -0.00652   0.00000  -0.05544   0.00000  -0.00140   0.00000  -0.00052   0.00000   0.00000   0.00000  -0.01089   0.00000  -0.00051   0.00000  -0.01096   0.00000  -0.00000   0.00000  -0.00105   0.00000   0.00000   0.00000  -0.00000   0.00000  -0.00598   0.00000   0.00000   0.00000  -0.01092   0.00000  -0.00098   0.00000   0.00000   0.00000  -0.01223
-18.57322   0.00000  -0.00652   0.00000  -0.05544   0.00000  -0.00140   0.00000  -0.00052   0.00000   0.00000   0.00000  -0.01089   0.00000  -0.00051   0.00000  -0.01096   0.00000  -0.00000   0.00000  -0.00105   0.00000   0.00000   0.00000  -0.00000   0.00000  -0.00598   0.00000   0.00000   0.00000  -0.01092   0.00000  -0.00098   0.00000   0.00000   0.00000  -0.01223
-18.52315   0.00000  -0.00652   0.00000  -0.05544   0.00000  -0.00140   0.00000  -0.00052   0.00000   0.00000   0.00000  -0.01089   0.00000  -0.00051   0.00000  -0.01096   0.00000  -0.00000   0.00000  -0.00105   0.00000   0.00000   0.00000  -0.00000   0.00000  -0.00598   0.00000   0.00000   0.00000  -0.01092   0.00000  -0.00098   0.00000   0.00000   0.00000  -0.01223
-18.47309   0.00000  -0.00652   0.00000  -0.05544   0.00000  -0.00140   0.00000  -0.00052   0.00000   0.00000   0.00000  -0.01089   0.00000  -0.00051   0.00000  -0.01096   0.00000  -0.00000   0.00000  -0.00105   0.00000   0.00000   0.00000  -0.00000   0.00000  -0.00598   0.00000   0.00000   0.00000  -0.01092   0.00000  -0.00098   0.00000   0.00000   0.00000  -0.01223
-18.42303   0.00000  -0.00652   0.00000  -0.05544   0.00000  -0.00140   0.00000  -0.00052   0.00000   0.00000   0.00000  -0.01089   0.00000  -0.00051   0.00000  -0.01096   0.00000  -0.00000   0.00000  -0.00105   0.00000   0.00000   0.00000  -0.00000   0.00000  -0.00598   0.00000   0.00000   0.00000  -0.01092   0.00000  -0.00098   0.00000   0.00000   0.00000  -0.01223
-18.37297   0.00000  -0.00652   0.00000  -0.05544   0.00000  -0.00140   0.00000  -0.00052   0.00000   0.00000   0.00000  -0.01089   0.00000  -0.00051   0.00000  -0.01096   0.00000  -0.00000   0.00000  -0.00105   0.00000   0.00000   0.00000  -0.00000   0.00000  -0.00598   0.00000   0.00000   0.00000  -0.01092   0.00000  -0.00098   0.00000   0.00000   0.00000  -0.01223
-18.32290   0.00000  -0.00652   0.00000  -0.05544   0.00000  -0.00140   0.00000  -0.00052   0.00000   0.00000   0.00000  -0.01089   0.00000  -0.00051   0.00000  -0.01096   0.00000  -0.00000   0.00000  -0.00105   0.00000   0.00000   0.00000  -0.00000   0.00000  -0.00598   0.00000   0.00000   0.00000  -0.01092   0.00000  -0.00098   0.00000   0.00000   0.00000  -0.01223
-18.27284   0.00000  -0.00652   0.00000  -0.05544   0.00000  -0.00140   0.00000  -0.00052   0.00000   0.00000   0.00000  -0.01089   0.00000  -0.00051   0.00000  -0.01096   0.00000  -0.00000   0.00000  -0.00105   0.00000   0.00000   0.00000  -0.00000   0.00000  -0.00598   0.00000   0.00000   0.00000  -0.01092   0.00000  -0.00098   0.00000   0.00000   0.00000  -0.01223
-18.22278   0.00000  -0.00652   0.00000  -0.05544   0.00000  -0.00140   0.00000  -0.00052   0.00000   0.00000   0.00000  -0.01089   0.00000  -0.00051   0.00000  -0.01096   0.00000  -0.00000   0.00000  -0.00105   0.00000   0.00000   0.00000  -0.00000   0.00000  -0.00598   0.00000   0.00000   0.00000  -0.01092   0.00000  -0.00098   0.00000   0.00000   0.00000  -0.01223
-18.17272   0.00000  -0.00652   0.00000  -0.05544   0.00000  -0.00140   0.00000  -0.00052   0.00000   0.00000   0.00000  -0.01089   0.00000  -0.00051   0.00000  -0.01096   0.00000  -0.00000   0.00000  -0.00105   0.00000   0.00000   0.00000  -0.00000   0.00000  -0.00598   0.00000   0.00000   0.00000  -0.01092   0.00000  -0.00098   0.00000   0.00000   0.00000  -0.01223